 Gaussian 16, Revision B.01,
 Gaussian 16:  EM64M-G16RevB.01 20-Dec-2017

 --------------------------------
 # uhf/3-21g pop=full iop(3/33=1)
 --------------------------------

 -------------------
 Title Card Required
 -------------------
 Symbolic Z-matrix:
 Charge =  0 Multiplicity = 2

                         Standard orientation:
 ---------------------------------------------------------------------
 Center     Atomic      Atomic             Coordinates (Angstroms)
 Number     Number       Type             X           Y           Z
 ---------------------------------------------------------------------
      1         11           0        0.000000    0.000000    0.000000
 ---------------------------------------------------------------------

 SCF Done:  E(UHF) =  -160.854064686     A.U. after    8 cycles

 The electronic state is 2-A1G.
 Alpha  occ. eigenvalues --  -40.21918  -2.77439  -1.48929  -1.48929  -1.48929
 Alpha  occ. eigenvalues --   -0.18052
 Alpha virt. eigenvalues --    0.02663   0.02663   0.02663   0.11830   0.15413
 Alpha virt. eigenvalues --    0.15413   0.15413
  Beta  occ. eigenvalues --  -40.21678  -2.76798  -1.48720  -1.48720  -1.48720
  Beta virt. eigenvalues --    0.01836   0.04943   0.04943   0.04943   0.15625
  Beta virt. eigenvalues --    0.18511   0.18511   0.18511

 Mulliken charges and spin densities:
               1          2
     1  Na  -0.000000   1.000000
 Sum of Mulliken charges =  -0.00000   1.00000

 Dipole moment (field-independent basis, Debye):
    X=              0.0000    Y=              0.0000    Z=              0.0000  Tot=              0.0000
 Quadrupole moment (field-independent basis, Debye-Ang):
   XX=            -12.3915   YY=            -12.3915   ZZ=            -12.3915
   XY=             -0.0000   XZ=              0.0000   YZ=             -0.0000

 Normal termination of Gaussian 16 at Fri Jul 15 10:20:58 2022.
