 Gaussian 16, Revision B.01,
 Gaussian 16:  EM64M-G16RevB.01 20-Dec-2017

 ------------------------------------------------
 # td=(nstates=10) rhf/3-21g pop=full iop(3/33=1)
 ------------------------------------------------

 -------------------
 Title Card Required
 -------------------
 Symbolic Z-matrix:
 Charge =  0 Multiplicity = 1

                         Standard orientation:
 ---------------------------------------------------------------------
 Center     Atomic      Atomic             Coordinates (Angstroms)
 Number     Number       Type             X           Y           Z
 ---------------------------------------------------------------------
      1          8           0        0.000000   -0.000000    0.110812
      2          1           0        0.000000    0.783976   -0.443248
      3          1           0       -0.000000   -0.783976   -0.443248
 ---------------------------------------------------------------------

 SCF Done:  E(RHF) =  -75.5858099786     A.U. after   10 cycles

 Excitation energies and oscillator strengths:

 Excited State   1:      Singlet-B1     9.5207 eV  130.23 nm  f=0.0061  <S**2>=0.000
       5 ->  6         0.70435
 This state for optimization and/or second-order correction.
 Total Energy, E(TD-HF/TD-DFT) =  -75.2359315550
 Copying the excited state density for this state as the 1-particle RhoCI density.

 Excited State   2:      Singlet-A2    11.4765 eV  108.03 nm  f=0.0000  <S**2>=0.000
       5 ->  7         0.70046

 Excited State   3:      Singlet-A1    11.8141 eV  104.95 nm  f=0.0829  <S**2>=0.000
       4 ->  6         0.70066

 Excited State   4:      Singlet-B2    13.9051 eV   89.16 nm  f=0.1063  <S**2>=0.000
       4 ->  7         0.69650

 Excited State   5:      Singlet-B2    16.1678 eV   76.69 nm  f=0.5087  <S**2>=0.000
       3 ->  6         0.69867

 Excited State   6:      Singlet-A1    20.3331 eV   60.98 nm  f=0.2577  <S**2>=0.000
       3 ->  7         0.69869

 Excited State   7:      Singlet-A1    33.3601 eV   37.17 nm  f=0.0091  <S**2>=0.000
       2 ->  6         0.69711

 Excited State   8:      Singlet-A2    34.0771 eV   36.38 nm  f=0.0000  <S**2>=0.000
       5 ->  8         0.70153

 Excited State   9:      Singlet-B2    35.2723 eV   35.15 nm  f=0.0430  <S**2>=0.000
       2 ->  7         0.68777
       4 ->  8        -0.13782

 Excited State  10:      Singlet-B1    35.5184 eV   34.91 nm  f=0.1942  <S**2>=0.000
       5 ->  9         0.69821

 The electronic state is 1-A1.
 Alpha  occ. eigenvalues --  -20.42410  -1.32206  -0.69197  -0.52705  -0.47640
 Alpha virt. eigenvalues --    0.26331   0.36340   1.22115   1.27317   1.78510
 Alpha virt. eigenvalues --    1.85832   2.02914   3.10431

 Mulliken charges:
               1
     1  O   -0.739717
     2  H    0.369859
     3  H    0.369859
 Sum of Mulliken charges =  -0.00000

 Dipole moment (field-independent basis, Debye):
    X=             -0.0000    Y=              0.0000    Z=             -2.3573  Tot=              2.3573
 Quadrupole moment (field-independent basis, Debye-Ang):
   XX=             -6.8230   YY=             -3.8987   ZZ=             -5.9169
   XY=              0.0000   XZ=              0.0000   YZ=              0.0000

 Normal termination of Gaussian 16 at Wed Jul 27 14:13:05 2022.
